<?xml version="1.0" encoding="UTF-8"?>

<!-- generated on 2022-12-01 19:15:50 by Eclipse SUMO GUI Version 1.14.1
<configuration xmlns:xsi="http://www.w3.org/2001/XMLSchema-instance" xsi:noNamespaceSchemaLocation="http://sumo.dlr.de/xsd/sumoConfiguration.xsd">

    <input>
        <net-file value="SUMO_Simulations\Basic\networkB.net.xml"/>
        <route-files value="SUMO_Simulations\Basic\networkA.rou.xml"/>
    </input>

    <output>
        <tripinfo-output value="tripinfo.xml"/>
    </output>

    <traci_server>
        <remote-port value="54788"/>
    </traci_server>

</configuration>
-->

<tripinfos xmlns:xsi="http://www.w3.org/2001/XMLSchema-instance" xsi:noNamespaceSchemaLocation="http://sumo.dlr.de/xsd/tripinfo_file.xsd">
    <tripinfo id="traffic1.0" depart="0.00" departLane="E18_0" departPos="5.10" departSpeed="0.00" departDelay="0.00" arrival="33.00" arrivalLane="E15_1" arrivalPos="73.06" arrivalSpeed="9.09" duration="33.00" routeLength="229.13" waitingTime="0.00" waitingCount="0" stopTime="0.00" timeLoss="9.84" rerouteNo="0" devices="tripinfo_traffic1.0" vType="car" speedFactor="1.01" vaporized=""/>
    <tripinfo id="traffic1.1" depart="7.00" departLane="E18_0" departPos="5.10" departSpeed="0.00" departDelay="0.33" arrival="40.00" arrivalLane="E15_1" arrivalPos="73.06" arrivalSpeed="7.63" duration="33.00" routeLength="229.13" waitingTime="0.00" waitingCount="0" stopTime="0.00" timeLoss="9.76" rerouteNo="0" devices="tripinfo_traffic1.1" vType="car" speedFactor="1.08" vaporized=""/>
    <tripinfo id="traffic1.2" depart="14.00" departLane="E18_0" departPos="5.10" departSpeed="0.00" departDelay="0.67" arrival="45.00" arrivalLane="E15_1" arrivalPos="73.06" arrivalSpeed="7.36" duration="31.00" routeLength="229.13" waitingTime="0.00" waitingCount="0" stopTime="0.00" timeLoss="7.90" rerouteNo="0" devices="tripinfo_traffic1.2" vType="car" speedFactor="1.03" vaporized=""/>
    <tripinfo id="traffic1.3" depart="20.00" departLane="E18_0" departPos="5.10" departSpeed="0.00" departDelay="0.00" arrival="53.00" arrivalLane="E15_1" arrivalPos="73.06" arrivalSpeed="6.85" duration="33.00" routeLength="229.13" waitingTime="0.00" waitingCount="0" stopTime="0.00" timeLoss="9.50" rerouteNo="0" devices="tripinfo_traffic1.3" vType="car" speedFactor="0.83" vaporized=""/>
    <tripinfo id="traffic1.4" depart="27.00" departLane="E18_0" departPos="5.10" departSpeed="0.00" departDelay="0.34" arrival="59.00" arrivalLane="E15_1" arrivalPos="73.06" arrivalSpeed="8.24" duration="32.00" routeLength="229.13" waitingTime="0.00" waitingCount="0" stopTime="0.00" timeLoss="8.81" rerouteNo="0" devices="tripinfo_traffic1.4" vType="car" speedFactor="1.05" vaporized=""/>
    <tripinfo id="agent2.0" depart="2.00" departLane="E0_0" departPos="5.10" departSpeed="0.00" departDelay="2.00" arrival="74.00" arrivalLane="E15_0" arrivalPos="73.06" arrivalSpeed="9.80" duration="72.00" routeLength="404.44" waitingTime="0.00" waitingCount="0" stopTime="0.00" timeLoss="26.63" rerouteNo="0" devices="tripinfo_agent2.0" vType="car" speedFactor="0.94" vaporized=""/>
    <tripinfo id="traffic1.5" depart="34.00" departLane="E18_0" departPos="5.10" departSpeed="0.00" departDelay="0.67" arrival="78.00" arrivalLane="E15_1" arrivalPos="73.06" arrivalSpeed="8.80" duration="44.00" routeLength="229.13" waitingTime="7.00" waitingCount="1" stopTime="0.00" timeLoss="20.30" rerouteNo="0" devices="tripinfo_traffic1.5" vType="car" speedFactor="0.89" vaporized=""/>
    <tripinfo id="traffic1.6" depart="40.00" departLane="E18_0" departPos="5.10" departSpeed="0.00" departDelay="0.00" arrival="81.00" arrivalLane="E15_1" arrivalPos="73.06" arrivalSpeed="7.70" duration="41.00" routeLength="229.13" waitingTime="3.00" waitingCount="1" stopTime="0.00" timeLoss="17.65" rerouteNo="0" devices="tripinfo_traffic1.6" vType="car" speedFactor="0.94" vaporized=""/>
    <tripinfo id="traffic1.7" depart="47.00" departLane="E18_0" departPos="5.10" departSpeed="0.00" departDelay="0.34" arrival="84.00" arrivalLane="E15_1" arrivalPos="73.06" arrivalSpeed="8.88" duration="37.00" routeLength="229.13" waitingTime="0.00" waitingCount="0" stopTime="0.00" timeLoss="13.95" rerouteNo="0" devices="tripinfo_traffic1.7" vType="car" speedFactor="0.86" vaporized=""/>
    <tripinfo id="traffic1.8" depart="54.00" departLane="E18_0" departPos="5.10" departSpeed="0.00" departDelay="0.67" arrival="88.00" arrivalLane="E15_1" arrivalPos="73.06" arrivalSpeed="9.18" duration="34.00" routeLength="229.13" waitingTime="0.00" waitingCount="0" stopTime="0.00" timeLoss="10.42" rerouteNo="0" devices="tripinfo_traffic1.8" vType="car" speedFactor="1.09" vaporized=""/>
    <tripinfo id="traffic1.9" depart="60.00" departLane="E18_0" departPos="5.10" departSpeed="0.00" departDelay="0.01" arrival="93.00" arrivalLane="E15_1" arrivalPos="73.06" arrivalSpeed="7.63" duration="33.00" routeLength="229.13" waitingTime="0.00" waitingCount="0" stopTime="0.00" timeLoss="9.89" rerouteNo="0" devices="tripinfo_traffic1.9" vType="car" speedFactor="1.03" vaporized=""/>
    <tripinfo id="traffic1.10" depart="67.00" departLane="E18_0" departPos="5.10" departSpeed="0.00" departDelay="0.34" arrival="102.00" arrivalLane="E15_1" arrivalPos="73.06" arrivalSpeed="9.91" duration="35.00" routeLength="229.13" waitingTime="0.00" waitingCount="0" stopTime="0.00" timeLoss="11.16" rerouteNo="0" devices="tripinfo_traffic1.10" vType="car" speedFactor="1.05" vaporized=""/>
    <tripinfo id="traffic1.11" depart="74.00" departLane="E18_0" departPos="5.10" departSpeed="0.00" departDelay="0.67" arrival="106.00" arrivalLane="E15_1" arrivalPos="73.06" arrivalSpeed="8.88" duration="32.00" routeLength="229.13" waitingTime="0.00" waitingCount="0" stopTime="0.00" timeLoss="9.09" rerouteNo="0" devices="tripinfo_traffic1.11" vType="car" speedFactor="1.12" vaporized=""/>
    <tripinfo id="traffic1.12" depart="80.00" departLane="E18_0" departPos="5.10" departSpeed="0.00" departDelay="0.01" arrival="114.00" arrivalLane="E15_1" arrivalPos="73.06" arrivalSpeed="7.67" duration="34.00" routeLength="229.13" waitingTime="0.00" waitingCount="0" stopTime="0.00" timeLoss="10.84" rerouteNo="0" devices="tripinfo_traffic1.12" vType="car" speedFactor="0.99" vaporized=""/>
    <tripinfo id="traffic1.13" depart="87.00" departLane="E18_0" departPos="5.10" departSpeed="0.00" departDelay="0.34" arrival="120.00" arrivalLane="E15_1" arrivalPos="73.06" arrivalSpeed="8.14" duration="33.00" routeLength="229.13" waitingTime="0.00" waitingCount="0" stopTime="0.00" timeLoss="9.86" rerouteNo="0" devices="tripinfo_traffic1.13" vType="car" speedFactor="0.93" vaporized=""/>
    <tripinfo id="traffic1.14" depart="94.00" departLane="E18_0" departPos="5.10" departSpeed="0.00" departDelay="0.68" arrival="123.00" arrivalLane="E15_1" arrivalPos="73.06" arrivalSpeed="8.93" duration="29.00" routeLength="229.13" waitingTime="0.00" waitingCount="0" stopTime="0.00" timeLoss="5.70" rerouteNo="0" devices="tripinfo_traffic1.14" vType="car" speedFactor="0.88" vaporized=""/>
    <tripinfo id="agent1.0" depart="0.00" departLane="E0_0" departPos="5.10" departSpeed="0.00" departDelay="0.00" arrival="127.00" arrivalLane="E15_1" arrivalPos="73.06" arrivalSpeed="9.42" duration="127.00" routeLength="268.55" waitingTime="84.00" waitingCount="1" stopTime="0.00" timeLoss="99.53" rerouteNo="0" devices="tripinfo_agent1.0" vType="car" speedFactor="1.06" vaporized=""/>
    <tripinfo id="traffic1.15" depart="100.00" departLane="E18_0" departPos="5.10" departSpeed="0.00" departDelay="0.01" arrival="132.00" arrivalLane="E15_1" arrivalPos="73.06" arrivalSpeed="7.39" duration="32.00" routeLength="229.13" waitingTime="0.00" waitingCount="0" stopTime="0.00" timeLoss="9.02" rerouteNo="0" devices="tripinfo_traffic1.15" vType="car" speedFactor="1.16" vaporized=""/>
    <tripinfo id="traffic1.16" depart="107.00" departLane="E18_0" departPos="5.10" departSpeed="0.00" departDelay="0.34" arrival="139.00" arrivalLane="E15_1" arrivalPos="73.06" arrivalSpeed="6.94" duration="32.00" routeLength="229.13" waitingTime="0.00" waitingCount="0" stopTime="0.00" timeLoss="8.77" rerouteNo="0" devices="tripinfo_traffic1.16" vType="car" speedFactor="1.02" vaporized=""/>
    <tripinfo id="traffic1.17" depart="114.00" departLane="E18_0" departPos="5.10" departSpeed="0.00" departDelay="0.68" arrival="147.00" arrivalLane="E15_1" arrivalPos="73.06" arrivalSpeed="7.27" duration="33.00" routeLength="229.13" waitingTime="0.00" waitingCount="0" stopTime="0.00" timeLoss="9.39" rerouteNo="0" devices="tripinfo_traffic1.17" vType="car" speedFactor="1.01" vaporized=""/>
    <tripinfo id="traffic1.18" depart="120.00" departLane="E18_0" departPos="5.10" departSpeed="0.00" departDelay="0.01" arrival="154.00" arrivalLane="E15_1" arrivalPos="73.06" arrivalSpeed="9.10" duration="34.00" routeLength="229.13" waitingTime="0.00" waitingCount="0" stopTime="0.00" timeLoss="10.30" rerouteNo="0" devices="tripinfo_traffic1.18" vType="car" speedFactor="0.97" vaporized=""/>
    <tripinfo id="traffic1.19" depart="127.00" departLane="E18_0" departPos="5.10" departSpeed="0.00" departDelay="0.35" arrival="159.00" arrivalLane="E15_1" arrivalPos="73.06" arrivalSpeed="8.17" duration="32.00" routeLength="229.13" waitingTime="0.00" waitingCount="0" stopTime="0.00" timeLoss="8.81" rerouteNo="0" devices="tripinfo_traffic1.19" vType="car" speedFactor="0.89" vaporized=""/>
    <tripinfo id="traffic1.20" depart="134.00" departLane="E18_0" departPos="5.10" departSpeed="0.00" departDelay="0.68" arrival="166.00" arrivalLane="E15_1" arrivalPos="73.06" arrivalSpeed="8.62" duration="32.00" routeLength="229.13" waitingTime="0.00" waitingCount="0" stopTime="0.00" timeLoss="9.05" rerouteNo="0" devices="tripinfo_traffic1.20" vType="car" speedFactor="0.83" vaporized=""/>
    <tripinfo id="agent2.1" depart="101.00" departLane="E0_0" departPos="5.10" departSpeed="0.00" departDelay="1.00" arrival="172.00" arrivalLane="E15_0" arrivalPos="73.06" arrivalSpeed="6.66" duration="71.00" routeLength="404.44" waitingTime="0.00" waitingCount="0" stopTime="0.00" timeLoss="27.43" rerouteNo="0" devices="tripinfo_agent2.1" vType="car" speedFactor="0.94" vaporized=""/>
    <tripinfo id="traffic1.21" depart="140.00" departLane="E18_0" departPos="5.10" departSpeed="0.00" departDelay="0.01" arrival="174.00" arrivalLane="E15_1" arrivalPos="73.06" arrivalSpeed="8.44" duration="34.00" routeLength="229.13" waitingTime="0.00" waitingCount="0" stopTime="0.00" timeLoss="11.00" rerouteNo="0" devices="tripinfo_traffic1.21" vType="car" speedFactor="0.87" vaporized=""/>
    <tripinfo id="traffic1.22" depart="147.00" departLane="E18_0" departPos="5.10" departSpeed="0.00" departDelay="0.35" arrival="178.00" arrivalLane="E15_1" arrivalPos="73.06" arrivalSpeed="7.52" duration="31.00" routeLength="229.13" waitingTime="0.00" waitingCount="0" stopTime="0.00" timeLoss="8.06" rerouteNo="0" devices="tripinfo_traffic1.22" vType="car" speedFactor="0.92" vaporized=""/>
    <tripinfo id="traffic1.23" depart="154.00" departLane="E18_0" departPos="5.10" departSpeed="0.00" departDelay="0.68" arrival="185.00" arrivalLane="E15_1" arrivalPos="73.06" arrivalSpeed="7.60" duration="31.00" routeLength="229.13" waitingTime="0.00" waitingCount="0" stopTime="0.00" timeLoss="8.00" rerouteNo="0" devices="tripinfo_traffic1.23" vType="car" speedFactor="0.95" vaporized=""/>
    <tripinfo id="traffic1.24" depart="160.00" departLane="E18_0" departPos="5.10" departSpeed="0.00" departDelay="0.02" arrival="194.00" arrivalLane="E15_1" arrivalPos="73.06" arrivalSpeed="7.74" duration="34.00" routeLength="229.13" waitingTime="0.00" waitingCount="0" stopTime="0.00" timeLoss="10.58" rerouteNo="0" devices="tripinfo_traffic1.24" vType="car" speedFactor="1.13" vaporized=""/>
    <tripinfo id="traffic1.25" depart="167.00" departLane="E18_0" departPos="5.10" departSpeed="0.00" departDelay="0.35" arrival="199.00" arrivalLane="E15_1" arrivalPos="73.06" arrivalSpeed="8.50" duration="32.00" routeLength="229.13" waitingTime="0.00" waitingCount="0" stopTime="0.00" timeLoss="8.39" rerouteNo="0" devices="tripinfo_traffic1.25" vType="car" speedFactor="0.93" vaporized=""/>
    <tripinfo id="traffic1.26" depart="174.00" departLane="E18_0" departPos="5.10" departSpeed="0.00" departDelay="0.68" arrival="206.00" arrivalLane="E15_1" arrivalPos="73.06" arrivalSpeed="9.41" duration="32.00" routeLength="229.13" waitingTime="0.00" waitingCount="0" stopTime="0.00" timeLoss="8.29" rerouteNo="0" devices="tripinfo_traffic1.26" vType="car" speedFactor="1.18" vaporized=""/>
    <tripinfo id="traffic1.27" depart="180.00" departLane="E18_0" departPos="5.10" departSpeed="0.00" departDelay="0.02" arrival="211.00" arrivalLane="E15_1" arrivalPos="73.06" arrivalSpeed="7.36" duration="31.00" routeLength="229.13" waitingTime="0.00" waitingCount="0" stopTime="0.00" timeLoss="7.68" rerouteNo="0" devices="tripinfo_traffic1.27" vType="car" speedFactor="1.15" vaporized=""/>
    <tripinfo id="traffic1.28" depart="187.00" departLane="E18_0" departPos="5.10" departSpeed="0.00" departDelay="0.35" arrival="219.00" arrivalLane="E15_1" arrivalPos="73.06" arrivalSpeed="8.19" duration="32.00" routeLength="229.13" waitingTime="0.00" waitingCount="0" stopTime="0.00" timeLoss="9.04" rerouteNo="0" devices="tripinfo_traffic1.28" vType="car" speedFactor="1.01" vaporized=""/>
    <tripinfo id="traffic1.29" depart="194.00" departLane="E18_0" departPos="5.10" departSpeed="0.00" departDelay="0.69" arrival="226.00" arrivalLane="E15_1" arrivalPos="73.06" arrivalSpeed="8.32" duration="32.00" routeLength="229.13" waitingTime="0.00" waitingCount="0" stopTime="0.00" timeLoss="8.60" rerouteNo="0" devices="tripinfo_traffic1.29" vType="car" speedFactor="1.17" vaporized=""/>
    <tripinfo id="traffic1.30" depart="200.00" departLane="E18_0" departPos="5.10" departSpeed="0.00" departDelay="0.02" arrival="233.00" arrivalLane="E15_1" arrivalPos="73.06" arrivalSpeed="6.51" duration="33.00" routeLength="229.13" waitingTime="0.00" waitingCount="0" stopTime="0.00" timeLoss="9.88" rerouteNo="0" devices="tripinfo_traffic1.30" vType="car" speedFactor="0.97" vaporized=""/>
    <tripinfo id="traffic1.31" depart="207.00" departLane="E18_0" departPos="5.10" departSpeed="0.00" departDelay="0.35" arrival="238.00" arrivalLane="E15_1" arrivalPos="73.06" arrivalSpeed="9.85" duration="31.00" routeLength="229.13" waitingTime="0.00" waitingCount="0" stopTime="0.00" timeLoss="7.56" rerouteNo="0" devices="tripinfo_traffic1.31" vType="car" speedFactor="1.18" vaporized=""/>
    <tripinfo id="agent1.1" depart="100.00" departLane="E0_0" departPos="5.10" departSpeed="0.00" departDelay="0.00" arrival="242.00" arrivalLane="E15_1" arrivalPos="73.06" arrivalSpeed="7.82" duration="142.00" routeLength="268.55" waitingTime="100.00" waitingCount="1" stopTime="0.00" timeLoss="114.34" rerouteNo="0" devices="tripinfo_agent1.1" vType="car" speedFactor="0.94" vaporized=""/>
    <tripinfo id="traffic1.32" depart="214.00" departLane="E18_0" departPos="5.10" departSpeed="0.00" departDelay="0.69" arrival="246.00" arrivalLane="E15_1" arrivalPos="73.06" arrivalSpeed="8.61" duration="32.00" routeLength="229.13" waitingTime="0.00" waitingCount="0" stopTime="0.00" timeLoss="8.60" rerouteNo="0" devices="tripinfo_traffic1.32" vType="car" speedFactor="1.10" vaporized=""/>
    <tripinfo id="traffic1.33" depart="220.00" departLane="E18_0" departPos="5.10" departSpeed="0.00" departDelay="0.02" arrival="252.00" arrivalLane="E15_1" arrivalPos="73.06" arrivalSpeed="6.74" duration="32.00" routeLength="229.13" waitingTime="0.00" waitingCount="0" stopTime="0.00" timeLoss="8.85" rerouteNo="0" devices="tripinfo_traffic1.33" vType="car" speedFactor="0.90" vaporized=""/>
    <tripinfo id="traffic1.34" depart="227.00" departLane="E18_0" departPos="5.10" departSpeed="0.00" departDelay="0.36" arrival="260.00" arrivalLane="E15_1" arrivalPos="73.06" arrivalSpeed="9.11" duration="33.00" routeLength="229.13" waitingTime="0.00" waitingCount="0" stopTime="0.00" timeLoss="9.73" rerouteNo="0" devices="tripinfo_traffic1.34" vType="car" speedFactor="1.03" vaporized=""/>
    <tripinfo id="agent2.2" depart="201.00" departLane="E0_0" departPos="5.10" departSpeed="0.00" departDelay="1.00" arrival="265.00" arrivalLane="E15_0" arrivalPos="73.06" arrivalSpeed="9.73" duration="64.00" routeLength="404.44" waitingTime="0.00" waitingCount="0" stopTime="0.00" timeLoss="20.00" rerouteNo="0" devices="tripinfo_agent2.2" vType="car" speedFactor="1.02" vaporized=""/>
    <tripinfo id="traffic1.35" depart="234.00" departLane="E18_0" departPos="5.10" departSpeed="0.00" departDelay="0.69" arrival="271.00" arrivalLane="E15_1" arrivalPos="73.06" arrivalSpeed="7.02" duration="37.00" routeLength="229.13" waitingTime="0.00" waitingCount="0" stopTime="0.00" timeLoss="13.52" rerouteNo="0" devices="tripinfo_traffic1.35" vType="car" speedFactor="0.96" vaporized=""/>
    <tripinfo id="traffic1.36" depart="240.00" departLane="E18_0" departPos="5.10" departSpeed="0.00" departDelay="0.02" arrival="275.00" arrivalLane="E15_1" arrivalPos="73.06" arrivalSpeed="8.28" duration="35.00" routeLength="229.13" waitingTime="0.00" waitingCount="0" stopTime="0.00" timeLoss="11.28" rerouteNo="0" devices="tripinfo_traffic1.36" vType="car" speedFactor="1.09" vaporized=""/>
    <tripinfo id="traffic1.37" depart="247.00" departLane="E18_0" departPos="5.10" departSpeed="0.00" departDelay="0.36" arrival="279.00" arrivalLane="E15_1" arrivalPos="73.06" arrivalSpeed="9.23" duration="32.00" routeLength="229.13" waitingTime="0.00" waitingCount="0" stopTime="0.00" timeLoss="8.55" rerouteNo="0" devices="tripinfo_traffic1.37" vType="car" speedFactor="1.04" vaporized=""/>
    <tripinfo id="traffic1.38" depart="254.00" departLane="E18_0" departPos="5.10" departSpeed="0.00" departDelay="0.69" arrival="288.00" arrivalLane="E15_1" arrivalPos="73.06" arrivalSpeed="6.93" duration="34.00" routeLength="229.13" waitingTime="0.00" waitingCount="0" stopTime="0.00" timeLoss="10.43" rerouteNo="0" devices="tripinfo_traffic1.38" vType="car" speedFactor="1.04" vaporized=""/>
    <tripinfo id="traffic1.39" depart="260.00" departLane="E18_0" departPos="5.10" departSpeed="0.00" departDelay="0.03" arrival="294.00" arrivalLane="E15_1" arrivalPos="73.06" arrivalSpeed="8.50" duration="34.00" routeLength="229.13" waitingTime="0.00" waitingCount="0" stopTime="0.00" timeLoss="10.49" rerouteNo="0" devices="tripinfo_traffic1.39" vType="car" speedFactor="1.09" vaporized=""/>
    <tripinfo id="traffic1.40" depart="267.00" departLane="E18_0" departPos="5.10" departSpeed="0.00" departDelay="0.36" arrival="298.00" arrivalLane="E15_1" arrivalPos="73.06" arrivalSpeed="8.65" duration="31.00" routeLength="229.13" waitingTime="0.00" waitingCount="0" stopTime="0.00" timeLoss="7.69" rerouteNo="0" devices="tripinfo_traffic1.40" vType="car" speedFactor="1.00" vaporized=""/>
    <tripinfo id="traffic1.41" depart="274.00" departLane="E18_0" departPos="5.10" departSpeed="0.00" departDelay="0.69" arrival="305.00" arrivalLane="E15_1" arrivalPos="73.06" arrivalSpeed="8.19" duration="31.00" routeLength="229.13" waitingTime="0.00" waitingCount="0" stopTime="0.00" timeLoss="7.92" rerouteNo="0" devices="tripinfo_traffic1.41" vType="car" speedFactor="0.90" vaporized=""/>
    <tripinfo id="traffic1.42" depart="280.00" departLane="E18_0" departPos="5.10" departSpeed="0.00" departDelay="0.03" arrival="313.00" arrivalLane="E15_1" arrivalPos="73.06" arrivalSpeed="9.05" duration="33.00" routeLength="229.13" waitingTime="0.00" waitingCount="0" stopTime="0.00" timeLoss="9.76" rerouteNo="0" devices="tripinfo_traffic1.42" vType="car" speedFactor="0.88" vaporized=""/>
    <tripinfo id="traffic1.43" depart="287.00" departLane="E18_0" departPos="5.10" departSpeed="0.00" departDelay="0.36" arrival="320.00" arrivalLane="E15_1" arrivalPos="73.06" arrivalSpeed="7.35" duration="33.00" routeLength="229.13" waitingTime="0.00" waitingCount="0" stopTime="0.00" timeLoss="9.51" rerouteNo="0" devices="tripinfo_traffic1.43" vType="car" speedFactor="0.85" vaporized=""/>
    <tripinfo id="traffic1.44" depart="294.00" departLane="E18_0" departPos="5.10" departSpeed="0.00" departDelay="0.70" arrival="326.00" arrivalLane="E15_1" arrivalPos="73.06" arrivalSpeed="8.03" duration="32.00" routeLength="229.13" waitingTime="0.00" waitingCount="0" stopTime="0.00" timeLoss="8.75" rerouteNo="0" devices="tripinfo_traffic1.44" vType="car" speedFactor="0.85" vaporized=""/>
    <tripinfo id="traffic1.45" depart="300.00" departLane="E18_0" departPos="5.10" departSpeed="0.00" departDelay="0.03" arrival="333.00" arrivalLane="E15_1" arrivalPos="73.06" arrivalSpeed="7.92" duration="33.00" routeLength="229.13" waitingTime="0.00" waitingCount="0" stopTime="0.00" timeLoss="10.04" rerouteNo="0" devices="tripinfo_traffic1.45" vType="car" speedFactor="1.10" vaporized=""/>
    <tripinfo id="traffic1.46" depart="307.00" departLane="E18_0" departPos="5.10" departSpeed="0.00" departDelay="0.36" arrival="338.00" arrivalLane="E15_1" arrivalPos="73.06" arrivalSpeed="9.40" duration="31.00" routeLength="229.13" waitingTime="0.00" waitingCount="0" stopTime="0.00" timeLoss="7.75" rerouteNo="0" devices="tripinfo_traffic1.46" vType="car" speedFactor="1.00" vaporized=""/>
    <tripinfo id="agent1.2" depart="200.00" departLane="E0_0" departPos="5.10" departSpeed="0.00" departDelay="0.00" arrival="341.00" arrivalLane="E15_1" arrivalPos="73.06" arrivalSpeed="7.71" duration="141.00" routeLength="268.55" waitingTime="91.00" waitingCount="3" stopTime="0.00" timeLoss="113.66" rerouteNo="0" devices="tripinfo_agent1.2" vType="car" speedFactor="0.99" vaporized=""/>
    <tripinfo id="traffic1.47" depart="314.00" departLane="E18_0" departPos="5.10" departSpeed="0.00" departDelay="0.70" arrival="345.00" arrivalLane="E15_1" arrivalPos="73.06" arrivalSpeed="6.95" duration="31.00" routeLength="229.13" waitingTime="0.00" waitingCount="0" stopTime="0.00" timeLoss="7.77" rerouteNo="0" devices="tripinfo_traffic1.47" vType="car" speedFactor="1.00" vaporized=""/>
    <tripinfo id="traffic1.48" depart="320.00" departLane="E18_0" departPos="5.10" departSpeed="0.00" departDelay="0.03" arrival="351.00" arrivalLane="E15_1" arrivalPos="73.06" arrivalSpeed="7.76" duration="31.00" routeLength="229.13" waitingTime="0.00" waitingCount="0" stopTime="0.00" timeLoss="8.08" rerouteNo="0" devices="tripinfo_traffic1.48" vType="car" speedFactor="0.90" vaporized=""/>
    <tripinfo id="traffic1.49" depart="327.00" departLane="E18_0" departPos="5.10" departSpeed="0.00" departDelay="0.37" arrival="360.00" arrivalLane="E15_1" arrivalPos="73.06" arrivalSpeed="7.59" duration="33.00" routeLength="229.13" waitingTime="0.00" waitingCount="0" stopTime="0.00" timeLoss="9.51" rerouteNo="0" devices="tripinfo_traffic1.49" vType="car" speedFactor="1.14" vaporized=""/>
    <tripinfo id="agent2.3" depart="302.00" departLane="E0_0" departPos="5.10" departSpeed="0.00" departDelay="2.00" arrival="364.00" arrivalLane="E15_0" arrivalPos="73.06" arrivalSpeed="7.97" duration="62.00" routeLength="404.44" waitingTime="0.00" waitingCount="0" stopTime="0.00" timeLoss="18.88" rerouteNo="0" devices="tripinfo_agent2.3" vType="car" speedFactor="1.02" vaporized=""/>
    <tripinfo id="traffic1.50" depart="334.00" departLane="E18_0" departPos="5.10" departSpeed="0.00" departDelay="0.70" arrival="368.00" arrivalLane="E15_1" arrivalPos="73.06" arrivalSpeed="8.46" duration="34.00" routeLength="229.13" waitingTime="0.00" waitingCount="0" stopTime="0.00" timeLoss="10.47" rerouteNo="0" devices="tripinfo_traffic1.50" vType="car" speedFactor="1.02" vaporized=""/>
    <tripinfo id="traffic1.51" depart="340.00" departLane="E18_0" departPos="5.10" departSpeed="0.00" departDelay="0.03" arrival="375.00" arrivalLane="E15_1" arrivalPos="73.06" arrivalSpeed="7.60" duration="35.00" routeLength="229.13" waitingTime="1.00" waitingCount="1" stopTime="0.00" timeLoss="11.92" rerouteNo="0" devices="tripinfo_traffic1.51" vType="car" speedFactor="0.97" vaporized=""/>
    <tripinfo id="traffic1.52" depart="347.00" departLane="E18_0" departPos="5.10" departSpeed="0.00" departDelay="0.37" arrival="382.00" arrivalLane="E15_1" arrivalPos="73.06" arrivalSpeed="9.48" duration="35.00" routeLength="229.13" waitingTime="0.00" waitingCount="0" stopTime="0.00" timeLoss="11.61" rerouteNo="0" devices="tripinfo_traffic1.52" vType="car" speedFactor="1.08" vaporized=""/>
    <tripinfo id="traffic1.53" depart="354.00" departLane="E18_0" departPos="5.10" departSpeed="0.00" departDelay="0.70" arrival="386.00" arrivalLane="E15_1" arrivalPos="73.06" arrivalSpeed="6.62" duration="32.00" routeLength="229.13" waitingTime="0.00" waitingCount="0" stopTime="0.00" timeLoss="8.73" rerouteNo="0" devices="tripinfo_traffic1.53" vType="car" speedFactor="1.12" vaporized=""/>
    <tripinfo id="traffic1.54" depart="360.00" departLane="E18_0" departPos="5.10" departSpeed="0.00" departDelay="0.04" arrival="392.00" arrivalLane="E15_1" arrivalPos="73.06" arrivalSpeed="9.57" duration="32.00" routeLength="229.13" waitingTime="0.00" waitingCount="0" stopTime="0.00" timeLoss="8.96" rerouteNo="0" devices="tripinfo_traffic1.54" vType="car" speedFactor="1.02" vaporized=""/>
    <tripinfo id="traffic1.55" depart="367.00" departLane="E18_0" departPos="5.10" departSpeed="0.00" departDelay="0.37" arrival="400.00" arrivalLane="E15_1" arrivalPos="73.06" arrivalSpeed="9.99" duration="33.00" routeLength="229.13" waitingTime="0.00" waitingCount="0" stopTime="0.00" timeLoss="9.47" rerouteNo="0" devices="tripinfo_traffic1.55" vType="car" speedFactor="0.99" vaporized=""/>
    <tripinfo id="traffic1.56" depart="374.00" departLane="E18_0" departPos="5.10" departSpeed="0.00" departDelay="0.70" arrival="409.00" arrivalLane="E15_1" arrivalPos="73.06" arrivalSpeed="8.83" duration="35.00" routeLength="229.13" waitingTime="0.00" waitingCount="0" stopTime="0.00" timeLoss="11.34" rerouteNo="0" devices="tripinfo_traffic1.56" vType="car" speedFactor="0.94" vaporized=""/>
    <tripinfo id="traffic1.57" depart="380.00" departLane="E18_0" departPos="5.10" departSpeed="0.00" departDelay="0.04" arrival="413.00" arrivalLane="E15_1" arrivalPos="73.06" arrivalSpeed="6.98" duration="33.00" routeLength="229.13" waitingTime="0.00" waitingCount="0" stopTime="0.00" timeLoss="9.71" rerouteNo="0" devices="tripinfo_traffic1.57" vType="car" speedFactor="0.88" vaporized=""/>
    <tripinfo id="traffic1.58" depart="387.00" departLane="E18_0" departPos="5.10" departSpeed="0.00" departDelay="0.37" arrival="419.00" arrivalLane="E15_1" arrivalPos="73.06" arrivalSpeed="7.59" duration="32.00" routeLength="229.13" waitingTime="0.00" waitingCount="0" stopTime="0.00" timeLoss="8.58" rerouteNo="0" devices="tripinfo_traffic1.58" vType="car" speedFactor="0.91" vaporized=""/>
    <tripinfo id="traffic1.59" depart="394.00" departLane="E18_0" departPos="5.10" departSpeed="0.00" departDelay="0.71" arrival="426.00" arrivalLane="E15_1" arrivalPos="73.06" arrivalSpeed="9.76" duration="32.00" routeLength="229.13" waitingTime="0.00" waitingCount="0" stopTime="0.00" timeLoss="8.27" rerouteNo="0" devices="tripinfo_traffic1.59" vType="car" speedFactor="0.91" vaporized=""/>
    <tripinfo id="traffic1.60" depart="400.00" departLane="E18_0" departPos="5.10" departSpeed="0.00" departDelay="0.04" arrival="434.00" arrivalLane="E15_1" arrivalPos="73.06" arrivalSpeed="6.55" duration="34.00" routeLength="229.13" waitingTime="0.00" waitingCount="0" stopTime="0.00" timeLoss="10.98" rerouteNo="0" devices="tripinfo_traffic1.60" vType="car" speedFactor="1.02" vaporized=""/>
    <tripinfo id="traffic1.61" depart="407.00" departLane="E18_0" departPos="5.10" departSpeed="0.00" departDelay="0.37" arrival="441.00" arrivalLane="E15_1" arrivalPos="73.06" arrivalSpeed="6.62" duration="34.00" routeLength="229.13" waitingTime="0.00" waitingCount="0" stopTime="0.00" timeLoss="10.99" rerouteNo="0" devices="tripinfo_traffic1.61" vType="car" speedFactor="0.97" vaporized=""/>
    <tripinfo id="traffic1.62" depart="414.00" departLane="E18_0" departPos="5.10" departSpeed="0.00" departDelay="0.71" arrival="445.00" arrivalLane="E15_1" arrivalPos="73.06" arrivalSpeed="7.99" duration="31.00" routeLength="229.13" waitingTime="0.00" waitingCount="0" stopTime="0.00" timeLoss="7.39" rerouteNo="0" devices="tripinfo_traffic1.62" vType="car" speedFactor="0.94" vaporized=""/>
    <tripinfo id="traffic1.63" depart="420.00" departLane="E18_0" departPos="5.10" departSpeed="0.00" departDelay="0.04" arrival="450.00" arrivalLane="E15_1" arrivalPos="73.06" arrivalSpeed="9.73" duration="30.00" routeLength="229.13" waitingTime="0.00" waitingCount="0" stopTime="0.00" timeLoss="6.48" rerouteNo="0" devices="tripinfo_traffic1.63" vType="car" speedFactor="1.06" vaporized=""/>
    <tripinfo id="agent1.3" depart="300.00" departLane="E0_0" departPos="5.10" departSpeed="0.00" departDelay="0.00" arrival="453.00" arrivalLane="E15_1" arrivalPos="73.06" arrivalSpeed="9.43" duration="153.00" routeLength="268.55" waitingTime="103.00" waitingCount="2" stopTime="0.00" timeLoss="126.12" rerouteNo="0" devices="tripinfo_agent1.3" vType="car" speedFactor="1.17" vaporized=""/>
    <tripinfo id="agent2.4" depart="401.00" departLane="E0_0" departPos="5.10" departSpeed="0.00" departDelay="1.00" arrival="466.00" arrivalLane="E15_0" arrivalPos="73.06" arrivalSpeed="9.88" duration="65.00" routeLength="404.44" waitingTime="0.00" waitingCount="0" stopTime="0.00" timeLoss="20.87" rerouteNo="0" devices="tripinfo_agent2.4" vType="car" speedFactor="1.02" vaporized=""/>
    <tripinfo id="traffic1.64" depart="427.00" departLane="E18_0" departPos="5.10" departSpeed="0.00" departDelay="0.38" arrival="468.00" arrivalLane="E15_1" arrivalPos="73.06" arrivalSpeed="8.04" duration="41.00" routeLength="229.13" waitingTime="3.00" waitingCount="2" stopTime="0.00" timeLoss="18.03" rerouteNo="0" devices="tripinfo_traffic1.64" vType="car" speedFactor="0.96" vaporized=""/>